# vtk DataFile Version 2.0
Unstructured Grid Example
ASCII
DATASET UNSTRUCTURED_GRID

POINTS 4225 float
0.50000000 0.50000000 0.00000000
0.25000000 0.75000000 0.00000000
0.50000000 0.75000000 0.00000000
0.75000000 0.75000000 0.00000000
0.25000000 0.50000000 0.00000000
0.25000000 0.25000000 0.00000000
0.50000000 0.25000000 0.00000000
0.75000000 0.50000000 0.00000000
0.75000000 0.25000000 0.00000000
0.12500000 0.87500000 0.00000000
0.25000000 0.87500000 0.00000000
0.37500000 0.87500000 0.00000000
0.12500000 0.75000000 0.00000000
0.12500000 0.62500000 0.00000000
0.50000000 0.87500000 0.00000000
0.62500000 0.87500000 0.00000000
0.62500000 0.75000000 0.00000000
0.50000000 0.62500000 0.00000000
0.62500000 0.62500000 0.00000000
0.75000000 0.87500000 0.00000000
0.87500000 0.87500000 0.00000000
0.12500000 0.50000000 0.00000000
0.12500000 0.37500000 0.00000000
0.25000000 0.37500000 0.00000000
0.37500000 0.50000000 0.00000000
0.37500000 0.37500000 0.00000000
0.12500000 0.25000000 0.00000000
0.12500000 0.12500000 0.00000000
0.25000000 0.62500000 0.00000000
0.37500000 0.75000000 0.00000000
0.37500000 0.62500000 0.00000000
0.25000000 0.12500000 0.00000000
0.37500000 0.25000000 0.00000000
0.50000000 0.37500000 0.00000000
0.37500000 0.12500000 0.00000000
0.50000000 0.12500000 0.00000000
0.62500000 0.50000000 0.00000000
0.75000000 0.62500000 0.00000000
0.87500000 0.62500000 0.00000000
0.87500000 0.50000000 0.00000000
0.87500000 0.75000000 0.00000000
0.62500000 0.12500000 0.00000000
0.75000000 0.12500000 0.00000000
0.87500000 0.25000000 0.00000000
0.87500000 0.37500000 0.00000000
0.87500000 0.12500000 0.00000000
0.62500000 0.25000000 0.00000000
0.62500000 0.37500000 0.00000000
0.75000000 0.37500000 0.00000000
0.06250000 0.93750000 0.00000000
0.12500000 0.93750000 0.00000000
0.18750000 0.93750000 0.00000000
0.06250000 0.87500000 0.00000000
0.06250000 0.81250000 0.00000000
0.25000000 0.93750000 0.00000000
0.31250000 0.93750000 0.00000000
0.31250000 0.87500000 0.00000000
0.25000000 0.81250000 0.00000000
0.31250000 0.81250000 0.00000000
0.37500000 0.93750000 0.00000000
0.43750000 0.93750000 0.00000000
0.06250000 0.75000000 0.00000000
0.06250000 0.68750000 0.00000000
0.12500000 0.68750000 0.00000000
0.18750000 0.75000000 0.00000000
0.18750000 0.68750000 0.00000000
0.06250000 0.62500000 0.00000000
0.06250000 0.56250000 0.00000000
0.12500000 0.81250000 0.00000000
0.18750000 0.87500000 0.00000000
0.18750000 0.81250000 0.00000000
0.50000000 0.93750000 0.00000000
0.56250000 0.93750000 0.00000000
0.56250000 0.87500000 0.00000000
0.50000000 0.81250000 0.00000000
0.56250000 0.81250000 0.00000000
0.62500000 0.93750000 0.00000000
0.68750000 0.93750000 0.00000000
0.56250000 0.75000000 0.00000000
0.50000000 0.68750000 0.00000000
0.56250000 0.68750000 0.00000000
0.62500000 0.68750000 0.00000000
0.68750000 0.75000000 0.00000000
0.68750000 0.68750000 0.00000000
0.56250000 0.62500000 0.00000000
0.50000000 0.56250000 0.00000000
0.56250000 0.56250000 0.00000000
0.75000000 0.93750000 0.00000000
0.81250000 0.93750000 0.00000000
0.81250000 0.87500000 0.00000000
0.75000000 0.81250000 0.00000000
0.81250000 0.81250000 0.00000000
0.87500000 0.93750000 0.00000000
0.93750000 0.93750000 0.00000000
0.68750000 0.87500000 0.00000000
0.62500000 0.81250000 0.00000000
0.68750000 0.81250000 0.00000000
0.06250000 0.50000000 0.00000000
0.06250000 0.43750000 0.00000000
0.12500000 0.43750000 0.00000000
0.18750000 0.50000000 0.00000000
0.18750000 0.43750000 0.00000000
0.06250000 0.37500000 0.00000000
0.06250000 0.31250000 0.00000000
0.25000000 0.43750000 0.00000000
0.31250000 0.50000000 0.00000000
0.31250000 0.43750000 0.00000000
0.31250000 0.37500000 0.00000000
0.25000000 0.31250000 0.00000000
0.31250000 0.31250000 0.00000000
0.37500000 0.43750000 0.00000000
0.43750000 0.50000000 0.00000000
0.43750000 0.43750000 0.00000000
0.06250000 0.25000000 0.00000000
0.06250000 0.18750000 0.00000000
0.12500000 0.18750000 0.00000000
0.18750000 0.25000000 0.00000000
0.18750000 0.18750000 0.00000000
0.06250000 0.12500000 0.00000000
0.06250000 0.06250000 0.00000000
0.12500000 0.31250000 0.00000000
0.18750000 0.37500000 0.00000000
0.18750000 0.31250000 0.00000000
0.12500000 0.56250000 0.00000000
0.18750000 0.62500000 0.00000000
0.25000000 0.68750000 0.00000000
0.18750000 0.56250000 0.00000000
0.25000000 0.56250000 0.00000000
0.31250000 0.75000000 0.00000000
0.37500000 0.81250000 0.00000000
0.43750000 0.81250000 0.00000000
0.43750000 0.75000000 0.00000000
0.43750000 0.87500000 0.00000000
0.31250000 0.56250000 0.00000000
0.37500000 0.56250000 0.00000000
0.43750000 0.62500000 0.00000000
0.43750000 0.68750000 0.00000000
0.43750000 0.56250000 0.00000000
0.31250000 0.62500000 0.00000000
0.31250000 0.68750000 0.00000000
0.37500000 0.68750000 0.00000000
0.12500000 0.06250000 0.00000000
0.18750000 0.12500000 0.00000000
0.25000000 0.18750000 0.00000000
0.18750000 0.06250000 0.00000000
0.25000000 0.06250000 0.00000000
0.31250000 0.25000000 0.00000000
0.37500000 0.31250000 0.00000000
0.43750000 0.31250000 0.00000000
0.43750000 0.25000000 0.00000000
0.50000000 0.31250000 0.00000000
0.43750000 0.37500000 0.00000000
0.50000000 0.43750000 0.00000000
0.31250000 0.06250000 0.00000000
0.37500000 0.06250000 0.00000000
0.43750000 0.12500000 0.00000000
0.43750000 0.18750000 0.00000000
0.50000000 0.18750000 0.00000000
0.43750000 0.06250000 0.00000000
0.50000000 0.06250000 0.00000000
0.31250000 0.12500000 0.00000000
0.31250000 0.18750000 0.00000000
0.37500000 0.18750000 0.00000000
0.56250000 0.50000000 0.00000000
0.62500000 0.56250000 0.00000000
0.68750000 0.56250000 0.00000000
0.68750000 0.50000000 0.00000000
0.75000000 0.56250000 0.00000000
0.68750000 0.62500000 0.00000000
0.75000000 0.68750000 0.00000000
0.81250000 0.56250000 0.00000000
0.81250000 0.50000000 0.00000000
0.87500000 0.56250000 0.00000000
0.93750000 0.62500000 0.00000000
0.93750000 0.68750000 0.00000000
0.93750000 0.56250000 0.00000000
0.93750000 0.50000000 0.00000000
0.81250000 0.75000000 0.00000000
0.87500000 0.81250000 0.00000000
0.93750000 0.81250000 0.00000000
0.93750000 0.75000000 0.00000000
0.93750000 0.87500000 0.00000000
0.81250000 0.68750000 0.00000000
0.81250000 0.62500000 0.00000000
0.87500000 0.68750000 0.00000000
0.56250000 0.06250000 0.00000000
0.62500000 0.06250000 0.00000000
0.68750000 0.12500000 0.00000000
0.68750000 0.18750000 0.00000000
0.75000000 0.18750000 0.00000000
0.68750000 0.06250000 0.00000000
0.75000000 0.06250000 0.00000000
0.81250000 0.25000000 0.00000000
0.81250000 0.31250000 0.00000000
0.87500000 0.31250000 0.00000000
0.93750000 0.31250000 0.00000000
0.93750000 0.25000000 0.00000000
0.93750000 0.37500000 0.00000000
0.93750000 0.43750000 0.00000000
0.81250000 0.06250000 0.00000000
0.87500000 0.06250000 0.00000000
0.93750000 0.12500000 0.00000000
0.93750000 0.18750000 0.00000000
0.93750000 0.06250000 0.00000000
0.81250000 0.12500000 0.00000000
0.81250000 0.18750000 0.00000000
0.87500000 0.18750000 0.00000000
0.56250000 0.12500000 0.00000000
0.56250000 0.18750000 0.00000000
0.56250000 0.25000000 0.00000000
0.62500000 0.18750000 0.00000000
0.68750000 0.25000000 0.00000000
0.56250000 0.31250000 0.00000000
0.56250000 0.37500000 0.00000000
0.62500000 0.43750000 0.00000000
0.68750000 0.43750000 0.00000000
0.56250000 0.43750000 0.00000000
0.75000000 0.31250000 0.00000000
0.81250000 0.37500000 0.00000000
0.81250000 0.43750000 0.00000000
0.75000000 0.43750000 0.00000000
0.87500000 0.43750000 0.00000000
0.68750000 0.31250000 0.00000000
0.62500000 0.31250000 0.00000000
0.68750000 0.37500000 0.00000000
0.03125000 0.96875000 0.00000000
0.06250000 0.96875000 0.00000000
0.09375000 0.96875000 0.00000000
0.03125000 0.93750000 0.00000000
0.03125000 0.90625000 0.00000000
0.12500000 0.96875000 0.00000000
0.15625000 0.96875000 0.00000000
0.15625000 0.93750000 0.00000000
0.12500000 0.90625000 0.00000000
0.15625000 0.90625000 0.00000000
0.18750000 0.96875000 0.00000000
0.21875000 0.96875000 0.00000000
0.03125000 0.87500000 0.00000000
0.03125000 0.84375000 0.00000000
0.06250000 0.84375000 0.00000000
0.09375000 0.87500000 0.00000000
0.09375000 0.84375000 0.00000000
0.03125000 0.81250000 0.00000000
0.03125000 0.78125000 0.00000000
0.06250000 0.90625000 0.00000000
0.09375000 0.93750000 0.00000000
0.09375000 0.90625000 0.00000000
0.25000000 0.96875000 0.00000000
0.28125000 0.96875000 0.00000000
0.28125000 0.93750000 0.00000000
0.25000000 0.90625000 0.00000000
0.28125000 0.90625000 0.00000000
0.31250000 0.96875000 0.00000000
0.34375000 0.96875000 0.00000000
0.28125000 0.87500000 0.00000000
0.25000000 0.84375000 0.00000000
0.28125000 0.84375000 0.00000000
0.31250000 0.84375000 0.00000000
0.34375000 0.87500000 0.00000000
0.34375000 0.84375000 0.00000000
0.28125000 0.81250000 0.00000000
0.25000000 0.78125000 0.00000000
0.28125000 0.78125000 0.00000000
0.37500000 0.96875000 0.00000000
0.40625000 0.96875000 0.00000000
0.40625000 0.93750000 0.00000000
0.37500000 0.90625000 0.00000000
0.40625000 0.90625000 0.00000000
0.43750000 0.96875000 0.00000000
0.46875000 0.96875000 0.00000000
0.34375000 0.93750000 0.00000000
0.31250000 0.90625000 0.00000000
0.34375000 0.90625000 0.00000000
0.03125000 0.75000000 0.00000000
0.03125000 0.71875000 0.00000000
0.06250000 0.71875000 0.00000000
0.09375000 0.75000000 0.00000000
0.09375000 0.71875000 0.00000000
0.03125000 0.68750000 0.00000000
0.03125000 0.65625000 0.00000000
0.12500000 0.71875000 0.00000000
0.15625000 0.75000000 0.00000000
0.15625000 0.71875000 0.00000000
0.15625000 0.68750000 0.00000000
0.12500000 0.65625000 0.00000000
0.15625000 0.65625000 0.00000000
0.18750000 0.71875000 0.00000000
0.21875000 0.75000000 0.00000000
0.21875000 0.71875000 0.00000000
0.03125000 0.62500000 0.00000000
0.03125000 0.59375000 0.00000000
0.06250000 0.59375000 0.00000000
0.09375000 0.62500000 0.00000000
0.09375000 0.59375000 0.00000000
0.03125000 0.56250000 0.00000000
0.03125000 0.53125000 0.00000000
0.06250000 0.65625000 0.00000000
0.09375000 0.68750000 0.00000000
0.09375000 0.65625000 0.00000000
[...]
POINT_DATA 4225
SCALARS scalars float 1
LOOKUP_TABLE default
0.49969894
0.24981627
0.35334051
0.24988267
0.35334051
0.24988267
0.35334051
0.35334051
0.24981627
0.07315002
0.13518709
0.17665207
0.13518709
0.17665207
0.19122650
0.17668844
0.32646424
0.46166162
0.42653210
0.13524802
0.07320841
0.19122650
0.17668844
0.32646424
0.46166162
0.42653210
0.13524802
0.07320841
0.32642388
0.32642388
0.42650734
0.13524802
0.32646424
0.46166162
0.17668844
0.19122650
0.46166162
0.32646424
0.17668844
0.19122650
0.13524802
0.17665207
0.13518709
0.13518709
0.17665207
0.07315002
0.32642388
0.42650734
0.32642388
0.01900499
0.03728691
0.05413955
0.03728691
0.05413955
0.06891368
0.08104072
0.15897356
0.19627102
0.23080183
0.09005415
0.09560726
0.06891368
0.08104072
0.15897356
0.19627102
0.23080183
0.09005415
0.09560726
0.10620759
0.10620759
0.15420022
0.09748643
0.09561925
0.18756159
0.27761785
0.27229432
0.09007728
0.08107328
0.34656169
0.41548448
0.40751002
0.38387477
0.29381996
0.34548653
0.45279739
0.49009736
0.48068366
0.06895294
0.05418156
0.10627192
0.19633991
0.15427221
0.03732597
0.01903233
0.15902450
0.25650623
0.23085979
0.09748643
0.09561925
0.18756159
0.27761785
0.27229432
0.09007728
0.08107328
0.34656169
0.41548448
0.40751002
0.38387477
0.29381996
0.34548653
0.45279739
0.49009736
0.48068366
0.06895294
0.05418156
0.10627192
0.19633991
0.15427221
0.03732597
0.01903233
0.15902450
0.25650623
0.23085979
0.18754269
0.25646468
0.29376383
0.27227269
0.34654064
0.29376383
0.25646468
0.27227269
0.34654064
0.18754269
0.40749211
0.45278445
0.45278445
0.40749211
0.48067690
0.38384045
0.34543891
0.38384045
0.03732597
0.10627192
0.19633991
0.05418156
0.06895294
0.29381996
0.38387477
0.40751002
0.34656169
0.41548448
0.45279739
0.49009736
0.08107328
0.09007728
0.18756159
0.27229432
0.27761785
0.09561925
0.09748643
0.15902450
0.23085979
0.25650623
0.49009736
0.45279739
0.40751002
0.41548448
0.34656169
0.38387477
0.29381996
0.27229432
0.27761785
0.18756159
0.09007728
0.08107328
0.09561925
0.09748643
0.19633991
0.10627192
0.05418156
0.06895294
0.03732597
0.23085979
0.25650623
0.15902450
0.09560726
0.09005415
0.15897356
0.23080183
0.19627102
0.08104072
0.06891368
0.19627102
0.23080183
0.15897356
0.08104072
0.06891368
0.09005415
0.09560726
0.05413955
0.03728691
0.03728691
0.05413955
0.01900499
0.10620759
0.15420022
0.10620759
0.18754269
0.27227269
0.34654064
0.25646468
0.29376383
0.40749211
0.45278445
0.45278445
0.40749211
0.48067690
0.29376383
0.25646468
0.27227269
0.34654064
0.18754269
0.34543891
0.38384045
0.38384045
0.00479571
0.00954717
0.01420776
0.00954717
0.01420776
0.01873222
0.02307675
0.04593408
0.05548476
0.06835134
0.02719939
0.03106035
0.01873222
0.02307675
0.04593408
0.05548476
0.06835134
0.02719939
0.03106035
0.02828152
0.02828152
0.04208501
0.03462238
0.03785113
0.07533987
0.10254332
0.11210486
0.04071548
0.04318781
0.14779177
0.16653036
0.18205668
0.19583017
0.16862466
0.20771809
0.21456938
0.22412246
0.24501656
0.04524429
0.04686509
0.09327983
0.13399786
0.13879709
0.04803460
0.04874153
0.08596129
0.12058711
0.12790830
0.03462238
0.03785113
0.07533987
0.10254332
0.11210486
0.04071548
0.04318781
0.14779177
0.16653036
0.18205668
0.19583017
0.16862466
0.20771809
0.21456938
0.22412246
0.24501656
0.04524429
0.04686509
0.09327983
0.13399786
0.13879709
0.04803460
0.04874153
0.08596129
0.12058711
0.12790830
0.06182412
0.08056057
0.09011218
0.09199465
0.12128101
0.09011218
0.08056057
0.09199465
0.12128101
0.06182412
0.14940085
0.17608311
0.17608311
0.14940085
0.20107059
0.13083329
0.11100667
0.13083329
0.04897906
0.04874490
0.09702003
0.14505494
0.14436051
0.04804129
0.04687499
0.19031046
0.23555645
0.23442741
0.23104066
0.18300631
0.22542876
0.27628651
0.31700565
0.31548466
0.04525721
0.04320354
0.08598941
0.13402873
0.12794578
0.04073372
0.03787152
0.09329755
0.14227576
0.13882076
0.35164439
0.38627250
0.38441748
0.37886026
0.33814130
0.36965430
0.41348834
0.44069512
0.43857700
0.35688819
0.31164291
0.34068481
0.36644533
0.40716415
0.38867645
0.32120014
0.27316695
0.29862174
0.45944186
0.47818207
0.47588201
0.46899892
0.44179216
0.45759905
0.48773912
0.49729275
0.49489901
0.43223509
0.39760706
0.42173044
0.03464447
0.03108362
0.06186535
0.10259535
0.09204912
0.02722322
0.02310039
0.12134461
0.16659677
0.14947000
0.13090301
0.09017492
0.11107441
0.17615470
0.22419123
0.20114192
0.01875473
0.01422798
0.02831611
0.05553549
0.04212945
0.00956351
0.00480587
0.04597548
0.08061585
0.06840551
0.07537619
0.12063045
0.16866878
0.11215312
0.14784840
0.21764571
0.26567968
0.30337150
0.29289586
0.31092533
0.18211851
0.21463363
0.26360957
0.27959923
0.24508080
0.19588588
0.20776639
0.24486225
0.04897906
0.04874490
0.09702003
0.14505494
0.14436051
0.04804129
0.04687499
0.19031046
0.23555645
0.23442741
0.23104066
0.18300631
0.22542876
0.27628651
0.31700565
0.31548466
0.04525721
0.04320354
0.08598941
0.13402873
0.12794578
0.04073372
0.03787152
0.09329755
0.14227576
0.13882076
0.35164439
0.38627250
0.38441748
0.37886026
0.33814130
0.36965430
0.41348834
0.44069512
0.43857700
0.35688819
0.31164291
0.34068481
0.36644533
0.40716415
0.38867645
0.32120014
0.27316695
0.29862174
0.45944186
0.47818207
0.47588201
0.46899892
0.44179216
0.45759905
0.48773912
0.49729275
0.49489901
0.43223509
0.39760706
0.42173044
0.03464447
0.03108362
0.06186535
0.10259535
0.09204912
0.02722322
0.02310039
0.12134461
0.16659677
0.14947000
0.13090301
0.09017492
0.11107441
0.17615470
0.22419123
0.20114192
0.01875473
0.01422798
0.02831611
0.05553549
0.04212945
0.00956351
0.00480587
0.04597548
0.08061585
0.06840551
0.07537619
0.12063045
0.16866878
0.11215312
0.14784840
0.21764571
0.26567968
0.30337150
0.29289586
0.31092533
0.18211851
0.21463363
0.26360957
0.27959923
0.24508080
0.19588588
0.20776639
0.24486225
0.09701398
0.14225974
0.18297840
0.14435242
0.19030093
0.21760585
0.24481193
0.27954882
0.29285420
0.31159410
0.26355156
0.27310486
0.23441695
0.27627559
0.31090362
0.30333949
0.33811027
0.31547370
0.35163376
0.23101993
0.22539817
0.26564777
0.27310486
0.26355156
0.27954882
0.31159410
0.29285420
0.24481193
0.21760585
0.30333949
0.33811027
0.31090362
0.27627559
0.23441695
0.31547370
0.35163376
0.18297840
0.14225974
0.14435242
0.19030093
0.09701398
0.22539817
0.26564777
0.23101993
0.38440750
0.41347928
0.43221948
0.42170743
0.44177309
0.43856910
0.45943532
0.44177309
0.42170743
0.43221948
0.43856910
0.45943532
0.41347928
0.38440750
0.47587697
0.48773570
0.48773570
0.47587697
0.49489729
0.46898895
0.45758437
0.46898895
0.37884051
0.36962518
0.35685033
0.39758066
0.40713425
0.34063905
0.32114755
0.32114755
0.34063905
0.29856362
0.40713425
0.39758066
0.36962518
0.35685033
0.37884051
0.38864034
0.36640387
0.36640387
0.00956351
0.02831611
0.05553549
0.01422798
0.01875473
0.09017492
0.13090301
0.14947000
0.12134461
0.16659677
0.17615470
0.22419123
0.02310039
0.02722322
0.06186535
0.09204912
0.10259535
0.03108362
0.03464447
0.04597548
0.06840551
0.08061585
0.27316695
0.32120014
0.34068481
0.31164291
0.35688819
0.36644533
0.40716415
0.36965430
0.33814130
0.37886026
0.41348834
0.43857700
0.44069512
0.38441748
0.35164439
0.38627250
0.44179216
0.46899892
0.47588201
0.45944186
0.47818207
0.48773912
0.49729275
0.42173044
0.39760706
0.43223509
0.03787152
0.04073372
0.08598941
0.12794578
0.13402873
0.04320354
0.04525721
0.18300631
0.22542876
0.23104066
0.23442741
0.19031046
0.23555645
0.27628651
0.31548466
0.31700565
0.04687499
0.04804129
0.09702003
0.14436051
0.14505494
0.04874490
0.04897906
0.09329755
0.13882076
0.14227576
0.07537619
0.11215312
0.14784840
0.12063045
0.16866878
0.18211851
0.21463363
0.26360957
0.27959923
0.24508080
0.21764571
0.26567968
0.30337150
0.29289586
0.31092533
0.20776639
0.19588588
0.24486225
0.49729275
0.48773912
0.47588201
0.47818207
0.45944186
0.46899892
0.44179216
0.43857700
0.44069512
0.41348834
0.37886026
0.36965430
0.33814130
0.38441748
0.38627250
0.35164439
0.40716415
0.36644533
0.34068481
0.35688819
0.31164291
0.32120014
0.27316695
0.42173044
0.43223509
0.39760706
0.31548466
0.31700565
0.27628651
0.23104066
0.22542876
0.18300631
0.23442741
0.23555645
0.19031046
0.13402873
0.12794578
0.08598941
0.04320354
0.04525721
0.04073372
0.03787152
0.14436051
0.14505494
0.09702003
0.04804129
0.04687499
0.04874490
0.04897906
0.14227576
0.13882076
0.09329755
0.22419123
0.17615470
0.14947000
0.16659677
0.12134461
0.13090301
0.09017492
0.09204912
0.10259535
0.06186535
0.02722322
0.02310039
0.03108362
0.03464447
0.05553549
0.02831611
0.01422798
0.01875473
0.00956351
0.06840551
0.08061585
0.04597548
0.24508080
0.26360957
0.27959923
0.21463363
0.18211851
0.29289586
0.30337150
0.26567968
0.21764571
0.31092533
0.14784840
0.11215312
0.12063045
0.16866878
0.07537619
0.19588588
0.24486225
0.20776639
0.04874153
0.04803460
0.09327983
0.13879709
0.13399786
0.04686509
0.04524429
0.16862466
0.20771809
0.19583017
0.18205668
0.14779177
0.16653036
0.21456938
0.24501656
0.22412246
0.04318781
0.04071548
0.07533987
0.11210486
0.10254332
0.03785113
0.03462238
0.08596129
0.12790830
0.12058711
0.22412246
0.24501656
0.21456938
0.18205668
0.16653036
0.14779177
0.19583017
0.20771809
0.16862466
0.11210486
0.10254332
0.07533987
0.04071548
0.04318781
0.03785113
0.03462238
0.13399786
0.13879709
0.09327983
0.04686509
0.04524429
0.04803460
0.04874153
0.12790830
0.12058711
0.08596129
0.03106035
0.02719939
0.04593408
0.06835134
0.05548476
0.02307675
0.01873222
0.05548476
0.06835134
0.04593408
0.02307675
0.01873222
0.02719939
0.03106035
0.01420776
0.00954717
0.00954717
0.01420776
0.00479571
0.02828152
0.04208501
0.02828152
0.06182412
0.09199465
0.12128101
0.08056057
0.09011218
0.14940085
0.17608311
0.17608311
0.14940085
0.20107059
0.09011218
0.08056057
0.09199465
0.12128101
0.06182412
0.11100667
0.13083329
0.13083329
0.09701398
0.14435242
0.19030093
0.14225974
0.18297840
0.23441695
0.27627559
0.31090362
0.30333949
0.33811027
0.31547370
0.35163376
0.21760585
0.24481193
0.27954882
0.29285420
0.31159410
0.26355156
0.27310486
0.22539817
0.23101993
0.26564777
0.38440750
0.41347928
0.43221948
0.42170743
0.44177309
0.43856910
0.45943532
0.44177309
0.42170743
0.43221948
0.43856910
0.45943532
0.41347928
0.38440750
0.47587697
0.48773570
0.48773570
0.47587697
0.49489729
0.46898895
0.45758437
0.46898895
0.27310486
0.26355156
0.27954882
0.31159410
0.29285420
0.24481193
0.21760585
0.30333949
0.33811027
0.31090362
0.27627559
0.23441695
0.31547370
0.35163376
0.18297840
0.14225974
0.14435242
0.19030093
0.09701398
0.22539817
0.26564777
0.23101993
0.29856362
0.32114755
0.34063905
0.32114755
0.34063905
0.35685033
0.36962518
0.39758066
0.40713425
0.37884051
0.35685033
0.36962518
0.39758066
0.40713425
0.37884051
0.36640387
0.36640387
0.38864034
0.00120142
0.00240041
0.00359391
0.00240041
0.00359391
0.00477895
0.00595261
0.01189169
0.01429303
0.01780279
0.00711204
0.00825443
0.00477895
0.00595261
0.01189169
0.01429303
0.01780279
0.00711204
0.00825443
0.00717992
0.00717992
0.01074920
0.00937700
0.01047705
0.02092965
0.02804302
0.03133254
0.01155190
0.01259897
0.04166058
0.04644152
0.05188884
0.05721137
0.05009709
0.06239627
0.06199259
0.06439476
0.07194746
0.01361573
0.01459971
0.02916497
0.04071821
0.04366063
0.01554856
0.01645997
0.02516835
0.03454671
0.03767779
0.00937700
0.01047705
0.02092965
0.02804302
0.03133254
0.01155190
0.01259897
0.04166058
0.04644152
0.05188884
0.05721137
0.05009709
0.06239627
0.06199259
0.06439476
0.07194746
0.01361573
0.01459971
0.02916497
0.04071821
0.04366063
0.01554856
0.01645997
0.02516835
0.03454671
0.03767779
0.01648978
0.02126996
0.02367159
0.02468613
0.03282362
0.02367159
0.02126996
0.02468613
0.03282362
0.01648978
0.04088259
0.04884355
0.04884355
0.04088259
0.05668725
0.03522547
0.02948384
0.03522547
0.01733175
0.01816180
0.03628044
0.05183019
0.05431225
0.01894811
0.01968878
0.07221373
0.08583166
0.08994172
0.09383518
0.07828457
0.09750266
0.10745347
0.11900836
0.12470677
0.02038204
0.02102621
0.04200223
0.06095130
0.06287750
0.02161973
0.02216118
0.03933067
0.05666351
0.05887831
0.14166001
0.15104050
0.15827232
0.16512298
0.15356760
0.17157595
0.17450365
0.18161932
0.19031487
0.17761568
0.16399661
0.18322760
0.20201743
0.21357315
0.22032081
0.18839819
0.17284654
0.19311498
0.20566786
0.21045013
0.22052562
0.23007000
0.22295410
0.23906024
0.23485233
0.23725506
0.24861345
0.19855207
0.18917124
0.20631106
0.02264925
0.02308276
0.04611023
0.06773065
0.06902689
0.02346067
0.02378207
0.09177753
0.11216097
0.11430731
0.11617831
0.09455744
0.11776944
0.13656195
0.15551217
0.15848782
0.02404617
0.02425235
0.04844642
0.07190747
0.07252389
0.02440011
0.02448909
0.04750707
0.07015685
0.07111782
0.04426937
0.06465224
0.08360169
0.06627126
0.08811384
0.10093531
0.11648626
0.13518960
0.13994875
0.13010486
0.10974446
0.13111098
0.14844515
0.14437082
0.15216192
0.10706360
0.10412485
0.12439752
0.01733175
0.01816180
0.03628044
0.05183019
0.05431225
0.01894811
0.01968878
0.07221373
0.08583166
0.08994172
0.09383518
0.07828457
0.09750266
0.10745347
0.11900836
0.12470677
0.02038204
0.02102621
0.04200223
0.06095130
0.06287750
0.02161973
0.02216118
0.03933067
0.05666351
0.05887831
0.14166001
0.15104050
0.15827232
0.16512298
0.15356760
0.17157595
0.17450365
0.18161932
0.19031487
0.17761568
0.16399661
0.18322760
0.20201743
0.21357315
0.22032081
0.18839819
0.17284654
0.19311498
0.20566786
0.21045013
0.22052562
0.23007000
0.22295410
0.23906024
0.23485233
0.23725506
0.24861345
0.19855207
0.18917124
0.20631106
0.02264925
0.02308276
0.04611023
0.06773065
0.06902689
0.02346067
0.02378207
0.09177753
0.11216097
0.11430731
0.11617831
0.09455744
0.11776944
0.13656195
0.15551217
0.15848782
0.02404617
0.02425235
0.04844642
0.07190747
0.07252389
0.02440011
0.02448909
0.04750707
0.07015685
0.07111782
0.04426937
0.06465224
0.08360169
0.06627126
0.08811384
0.10093531
0.11648626
0.13518960
0.13994875
0.13010486
0.10974446
0.13111098
0.14844515
0.14437082
0.15216192
0.10706360
0.10412485
0.12439752
0.03288095
0.04649795
0.05805171
0.04922333
0.06544770
0.06743103
0.07454565
0.08651590
0.09349649
0.09827815
0.07932711
0.08172940
0.08151491
0.09738623
0.10676623
0.10025203
0.11388138
0.11302337
0.12838863
0.07700189
0.07230349
0.08638158
0.08172940
0.07932711
0.08651590
0.09827815
0.09349649
0.07454565
0.06743103
0.10025203
0.11388138
0.10676623
0.09738623
0.08151491
0.11302337
0.12838863
0.05805171
0.04649795
0.04922333
0.06544770
0.03288095
0.07230349
0.08638158
0.07700189
0.14344495
0.15815603
0.16293811
0.15299748
0.16534071
0.17248640
0.18640150
0.16534071
0.15299748
0.16293811
0.17248640
0.18640150
0.15815603
0.14344495
0.19986780
0.21285282
0.21285282
0.19986780
0.22532526
0.18880416
0.17728587
0.18880416
0.13550398
0.12723676
0.11866321
0.14028595
0.14268849
0.10980401
0.10068054
0.10068054
0.10980401
0.09131480
0.14268849
0.14028595
0.12723676
0.11866321
0.13550398
0.13203599
0.12106568
0.12106568
0.02451906
0.02448998
0.04892091
0.07332106
0.07323394
0.02440189
0.02425501
0.09737051
0.12141694
0.12127247
0.12083585
0.09643580
0.12010812
0.14488224
0.16834350
0.16814295
0.02404970
0.02378645
0.04751537
0.07191697
0.07112962
0.02346589
0.02308879
0.04845146
0.07297040
0.07253105
0.19099855
0.21364883
0.21339400
0.21262508
0.18916389
0.21134392
0.23527533
0.25689659
0.25658984
0.20955359
0.18550741
0.20725841
0.22850998
0.25197104
0.24921094
0.20446389
0.18006429
0.20117677
0.27728619
0.29767031
0.29731451
0.29624244
0.27462122
0.29445669
0.31662655
0.33557730
0.33517579
0.25566494
0.23301472
0.25412411
0.02265607
0.02216876
0.04428373
0.06774901
0.06629165
0.02162803
0.02103520
0.08813953
0.11218827
0.10977476
0.10709676
0.08363211
0.10416071
0.13114525
0.15554606
0.15219952
0.02039167
0.01969901
0.03935003
0.06097717
0.05890575
0.01895888
0.01817306
0.04201925
0.06467457
0.06290165
0.04612166
0.07017091
0.09457232
0.06904313
0.09179800
0.11909102
0.14349098
0.16652807
0.16511763
0.16753732
0.11433148
0.13658929
0.16110768
0.16330938
0.15851783
0.11619922
0.11778701
0.14071777
0.35291756
0.37025249
0.36980910
0.36847479
0.34952407
0.36625279
0.38580972
0.40136195
0.40088088
0.36314843
0.34276439
0.35916918
0.37470865
0.39365934
0.38934535
0.35432463
0.33270355
0.34862644
0.41498628
0.42860607
0.42809193
0.42654647
0.41099425
0.42397341
0.44016626
0.45172249
0.45118018
0.39943406
0.38209914
0.39702494
0.34208832
0.31943839
0.33472602
0.34920717
0.37082819
0.36284695
0.32655727
0.30309658
0.31760173
0.37561252
0.39599648
0.38747313
0.37801626
0.35639526
0.36764865
0.39840022
0.41735087
0.40836746
0.30788097
0.28383541
0.29741840
0.31028475
0.33374540
0.32240348
0.28623920
0.26184028
0.27437030
0.33134164
0.35399151
0.34428320
0.46110717
0.47048857
0.46992330
0.46822594
0.45666971
0.46540057
0.47760734
0.48472359
0.48414078
0.46145400
0.44783422
0.45639574
0.46385773
0.47541395
0.47020223
0.45023795
0.43468575
0.44299547
0.48950788
0.49429045
0.49369570
0.49191160
0.48479535
0.48894243
0.49669417
0.49909703
0.49849606
0.48239163
0.47301023
0.47948035
0.44955094
0.43593115
0.42037894
0.44683868
0.44304993
0.40304404
0.38409336
0.37791602
0.39121217
0.36370937
0.43819381
0.43228202
0.41494714
0.40356579
0.42532879
0.42749772
0.41577172
0.41016283
0.01734344
0.01647203
0.03290370
0.05186145
0.04925550
0.01556090
0.01461227
0.06548807
0.08587782
0.08156235
0.07705029
0.05809349
0.07235248
0.09743967
0.11906530
0.11308180
0.01362840
0.01261167
0.02519219
0.04075179
0.03771133
0.01156451
0.01048945
0.02918861
0.04653083
0.04369398
0.12845112
0.15110457
0.14351062
0.13557078
0.11394561
0.12730416
0.15822406
0.18168732
0.17255602
0.11873065
0.09834199
0.10987089
0.12113475
0.14275971
0.13210650
0.10074618
0.08179033
0.09137849
0.18647201
0.21051926
0.19993852
0.18887593
0.16541281
0.17735812
0.21292314
0.23732291
0.22539461
0.16300884
0.14035568
0.15306876
0.00938908
0.00826602
0.01651131
0.02807449
0.02471612
0.00712297
0.00596268
0.03286075
0.04648698
0.04092568
0.03526548
0.02370295
0.02951998
0.04889153
0.06444978
0.05673918
0.00478792
0.00360147
0.00719353
0.01431543
0.01076767
0.00240616
0.00120477
0.01191019
0.02129800
0.01782834
0.02095285
0.03457991
0.05013899
0.03136505
0.04170105
0.06748025
0.08643668
0.10031218
0.09355679
0.10682574
0.05193602
0.06204537
0.07938605
0.08657581
0.07200479
0.05725973
0.06244529
0.07460064
0.03630174
0.05669239
0.07831910
0.05434240
0.07225163
0.10097368
0.12443803
0.14441526
0.13999626
0.16404427
0.14848628
0.17288689
0.08998631
0.10750378
0.13015772
0.13523993
0.15362154
0.12476184
0.14171898
0.09387794
0.09754334
0.11653219
0.19740495
0.22180443
0.24189759
0.23736196
0.26140786
0.24585042
0.26931142
0.28028823
0.27503240
0.29849325
0.32114327
0.32553378
0.31597906
0.31005358
0.29196154
0.31358273
0.33195327
0.32914000
0.33396682
0.28876300
0.28486878
0.30751885
0.15833436
0.17456798
0.19861544
0.20637150
0.22301540
0.19038077
0.20573466
0.24753294
0.25534763
0.27193200
0.28786110
0.27905097
0.29597765
0.30338109
0.22059268
0.23491906
0.25943646
0.26956848
0.24867930
0.23013452
0.23912182
0.25465198
0.16518258
0.17163274
0.17766934
0.18923019
0.21363028
0.18327782
0.18844469
0.21296261
0.23225445
0.19315752
0.23814792
0.26254707
0.26911393
0.25098660
0.28659279
0.22037431
0.20206958
0.22658735
0.02451906
0.02448998
0.04892091
0.07332106
0.07323394
0.02440189
0.02425501
0.09737051
0.12141694
0.12127247
0.12083585
0.09643580
0.12010812
0.14488224
0.16834350
0.16814295
0.02404970
0.02378645
0.04751537
0.07191697
0.07112962
0.02346589
0.02308879
0.04845146
0.07297040
0.07253105
0.19099855
0.21364883
0.21339400
0.21262508
0.18916389
0.21134392
0.23527533
0.25689659
0.25658984
0.20955359
0.18550741
0.20725841
0.22850998
0.25197104
0.24921094
0.20446389
0.18006429
0.20117677
0.27728619
0.29767031
0.29731451
0.29624244
0.27462122
0.29445669
0.31662655
0.33557730
0.33517579
0.25566494
0.23301472
0.25412411
0.02265607
0.02216876
0.04428373
0.06774901
0.06629165
0.02162803
0.02103520
0.08813953
0.11218827
0.10977476
0.10709676
0.08363211
0.10416071
0.13114525
0.15554606
0.15219952
0.02039167
0.01969901
0.03935003
0.06097717
0.05890575
0.01895888
0.01817306
0.04201925
0.06467457
0.06290165
0.04612166